Program Version,EnergyPlus, Version 9.1.0-08d2e308bb, YMD=2019.11.20 15:57
1,5,Environment Title[],Latitude[deg],Longitude[deg],Time Zone[],Elevation[m]
2,8,Day of Simulation[],Month[],Day of Month[],DST Indicator[1=yes 0=no],Hour[],StartMinute[],EndMinute[],DayType
3,5,Cumulative Day of Simulation[],Month[],Day of Month[],DST Indicator[1=yes 0=no],DayType  ! When Daily Meters Requested
4,2,Cumulative Days of Simulation[],Month[]  ! When Monthly Meters Requested
5,1,Cumulative Days of Simulation[] ! When Run Period Meters Requested
6,1,Calendar Year of Simulation[] ! When Annual Meters Requested
13,9,Electricity:Facility [J] !Monthly [Value,Min,Day,Hour,Minute,Max,Day,Hour,Minute]
25,9,Electricity:Building [J] !Monthly [Value,Min,Day,Hour,Minute,Max,Day,Hour,Minute]
49,9,InteriorLights:Electricity [J] !Monthly [Value,Min,Day,Hour,Minute,Max,Day,Hour,Minute]
839,9,Electricity:HVAC [J] !Monthly [Value,Min,Day,Hour,Minute,Max,Day,Hour,Minute]
1012,9,Electricity:Plant [J] !Monthly [Value,Min,Day,Hour,Minute,Max,Day,Hour,Minute]
975,9,Gas:Plant [J] !Monthly [Value,Min,Day,Hour,Minute,Max,Day,Hour,Minute]
963,9,Gas:Facility [J] !Monthly [Value,Min,Day,Hour,Minute,Max,Day,Hour,Minute]
15,11,Electricity:Facility [J] !RunPeriod [Value,Min,Month,Day,Hour,Minute,Max,Month,Day,Hour,Minute]
27,11,Electricity:Building [J] !RunPeriod [Value,Min,Month,Day,Hour,Minute,Max,Month,Day,Hour,Minute]
51,11,InteriorLights:Electricity [J] !RunPeriod [Value,Min,Month,Day,Hour,Minute,Max,Month,Day,Hour,Minute]
841,11,Electricity:HVAC [J] !RunPeriod [Value,Min,Month,Day,Hour,Minute,Max,Month,Day,Hour,Minute]
1014,11,Electricity:Plant [J] !RunPeriod [Value,Min,Month,Day,Hour,Minute,Max,Month,Day,Hour,Minute]
977,11,Gas:Plant [J] !RunPeriod [Value,Min,Month,Day,Hour,Minute,Max,Month,Day,Hour,Minute]
965,11,Gas:Facility [J] !RunPeriod [Value,Min,Month,Day,Hour,Minute,Max,Month,Day,Hour,Minute]
End of Data Dictionary
1,RUNPERIOD 1,  41.98, -87.92,  -6.00, 201.00
4,31, 1
13,13184916042.321824,427500.0, 1, 1,15,15752564.537245218,17,11,60
25,10966050000.0,427500.0, 1, 1,15,10800000.0, 1,11,15
49,7369650000.0,337500.0, 1, 1,15,6750000.0, 1,11,15
839,834157289.373078,0.0, 1, 1,15,708772.8082225705, 7, 8,30
963,6754947617.836005,0.0, 1, 1,15,34400177.58000251, 7, 8,15
975,6754947617.836005,0.0, 1, 1,15,34400177.58000251, 7, 8,15
1012,1384708752.948709,0.0, 1, 1,15,4314102.794666031,17,13,60
4,59, 2
13,11758255271.680556,427500.0, 1, 1,15,15747499.277902872,11,11,15
25,9578520000.0,427500.0, 1, 1,15,10800000.0, 1,11,15
49,6442200000.0,337500.0, 1, 1,15,6750000.0, 1,11,15
839,724506248.5153277,0.0, 1, 1,15,708762.2868745898, 6, 8,15
963,5583461906.078706,0.0, 1, 1,15,32905639.94460703, 6, 8,15
975,5583461906.078706,0.0, 1, 1,15,32905639.94460703, 6, 8,15
1012,1455229023.1651946,0.0, 1, 1,15,4312253.544583466,11,13,60
4,90, 3
13,12979301356.430563,427500.0, 1, 1,15,15750446.40986436,14,11,15
25,10123110000.0,427500.0, 1, 1,15,10800000.0, 1,11,15
49,6816150000.0,337500.0, 1, 1,15,6750000.0, 1,11,15
839,758551320.7652124,0.0, 1, 1,15,700335.9222226844, 1, 8,15
963,3478067718.458683,0.0, 1, 1,15,24315859.81812298,18, 8,15
975,3478067718.458683,0.0, 1, 1,15,24315859.81812298,18, 8,15
1012,2097640035.6653555,0.0, 1, 1,15,4319604.330563073,26,19,45
4,120, 4
13,14715679585.162148,427500.0, 1, 1,15,18181207.631740385,18,11,60
25,10503540000.0,427500.0, 1, 1,15,10800000.0, 1,11,15
49,7060500000.0,337500.0, 1, 1,15,6750000.0, 1,11,15
839,797122686.3764302,0.0, 1, 1,15,697135.3107815093, 2, 8,15
963,2460960209.6699745,0.0, 1, 1,15,19115724.070195449, 3, 8,15
975,2460960209.6699745,0.0, 1, 1,15,19115724.070195449, 3, 8,15
1012,3415016898.7857196,0.0, 1, 1,15,6764802.789384273,18,15,45
4,151, 5
13,16956417220.931052,427500.0, 1, 1,15,18335606.746583404,30,11,15
25,10966050000.0,427500.0, 1, 1,15,10800000.0, 1,11,15
49,7369650000.0,337500.0, 1, 1,15,6750000.0, 1,11,15
839,839615395.0759007,0.0, 1, 1,15,685864.9620423789, 2, 8,15
963,1304482872.7911735,0.0, 1, 1,15,13723216.468167663, 2, 8,15
975,1304482872.7911735,0.0, 1, 1,15,13723216.468167663, 2, 8,15
1012,5150751825.855151,0.0, 1, 1,15,7092145.209202028,30,10,60
4,181, 6
13,16424439487.344222,427500.0, 1, 1,15,19307326.979737685,20,11,60
25,9660600000.0,427500.0, 1, 1,15,10800000.0, 3,11,15
49,6507000000.0,337500.0, 1, 1,15,6750000.0, 3,11,15
839,736987040.5015534,0.0, 1, 1,15,681733.8049459622, 6,16,60
963,395200169.5535334,0.0, 1, 1,15,5611956.921842713, 7, 8,30
975,395200169.5535334,0.0, 1, 1,15,5611956.921842713, 7, 8,30
1012,6026852446.842673,0.0, 1, 1,15,8223912.993132726,20,15,60
4,212, 7
13,20171982065.07386,427500.0, 1, 1,15,20034799.823074607,19,11,60
25,10966050000.0,427500.0, 1, 1,15,10800000.0, 1,11,15
49,7369650000.0,337500.0, 1, 1,15,6750000.0, 1,11,15
839,848634059.0658193,0.0, 1, 1,15,687324.2992932438,17,16,45
963,411407570.81910088,0.0, 1, 1,15,5719958.3307470609,10, 8,15
975,411407570.81910088,0.0, 1, 1,15,5719958.3307470609,10, 8,15
1012,8357298006.008009,0.0, 1, 1,15,8796277.652041709,19,16,60
4,243, 8
13,18490407211.21134,427500.0, 1, 1,15,19768758.33854602,22,11,60
25,10544580000.0,427500.0, 1, 1,15,10800000.0, 1,11,15
49,7092900000.0,337500.0, 1, 1,15,6750000.0, 1,11,15
839,807907660.2383393,0.0, 1, 1,15,686555.5874786577,12,15,60
963,472361088.11348178,0.0, 1, 1,15,5959886.002445868,22, 8,30
975,472361088.11348178,0.0, 1, 1,15,5959886.002445868,22, 8,30
1012,7137919550.973007,0.0, 1, 1,15,8301685.434762855,22,11,60
4,273, 9
13,16323642489.67854,427500.0, 1, 1,15,18742416.008275346, 6,11,60
25,10082070000.0,427500.0, 1, 1,15,10800000.0, 2,11,15
49,6783750000.0,337500.0, 1, 1,15,6750000.0, 2,11,15
839,770683906.6106819,0.0, 1, 1,15,682665.1442055967, 9,15,60
963,688559216.6257579,0.0, 1, 1,15,11005871.826535952,25, 8,15
975,688559216.6257579,0.0, 1, 1,15,11005871.826535952,25, 8,15
1012,5470888583.067876,0.0, 1, 1,15,7271159.322954705, 6,11,60
4,304,10
13,15532944513.003968,427500.0, 1, 1,15,16585982.026016282,21,15,30
25,10966050000.0,427500.0, 1, 1,15,10800000.0, 1,11,15
49,7369650000.0,337500.0, 1, 1,15,6750000.0, 1,11,15
839,834636589.9015641,0.0, 1, 1,15,693869.6746977225,15, 8,15
963,2294432516.4452946,0.0, 1, 1,15,18369425.239192394,28, 8,15
975,2294432516.4452946,0.0, 1, 1,15,18369425.239192394,28, 8,15
1012,3732257923.1023805,0.0, 1, 1,15,5579275.481093315,21,15,30
4,334,11
13,12917075961.39438,427500.0, 1, 1,15,15748573.858402988,14,11,15
25,10082070000.0,427500.0, 1, 1,15,10800000.0, 1,11,15
49,6783750000.0,337500.0, 1, 1,15,6750000.0, 1,11,15
839,759107541.5614098,0.0, 1, 1,15,704261.2896920482,26, 8,15
963,4021568076.4708268,0.0, 1, 1,15,28204986.579916736,26, 8,15
975,4021568076.4708268,0.0, 1, 1,15,28204986.579916736,26, 8,15
1012,2075898419.8329406,0.0, 1, 1,15,4341606.383879755, 8,19,60
4,365,12
13,12712558942.012179,427500.0, 1, 1,15,15744582.58083747, 5,11,60
25,10544580000.0,427500.0, 1, 1,15,10800000.0, 2,11,15
49,7092900000.0,337500.0, 1, 1,15,6750000.0, 2,11,15
839,798160592.9276998,0.0, 1, 1,15,708129.8485083535,20, 8,30
963,6396279635.55769,0.0, 1, 1,15,30416615.48258692,20, 8,15
975,6396279635.55769,0.0, 1, 1,15,30416615.48258692,20, 8,15
1012,1369818349.0844563,0.0, 1, 1,15,4307000.690313108, 6,12,60
5,365
15,182167620146.2454,427500.0, 1, 1, 1,15,20034799.823074607, 7,19,11,60
27,124983270000.0,427500.0, 1, 1, 1,15,10800000.0, 1, 1,11,15
51,84057750000.0,337500.0, 1, 1, 1,15,6750000.0, 1, 1,11,15
841,9510070330.913075,0.0, 1, 1, 1,15,708772.8082225705, 1, 7, 8,30
965,34261728598.420175,0.0, 1, 1, 1,15,34400177.58000251, 1, 7, 8,15
977,34261728598.420175,0.0, 1, 1, 1,15,34400177.58000251, 1, 7, 8,15
1014,47674279815.33645,0.0, 1, 1, 1,15,8796277.652041709, 7,19,16,60
End of Data
 Number of Records Written=          91
