Program Version,EnergyPlus, Version 9.1.0-08d2e308bb, YMD=2019.11.21 10:39
1,5,Environment Title[],Latitude[deg],Longitude[deg],Time Zone[],Elevation[m]
2,8,Day of Simulation[],Month[],Day of Month[],DST Indicator[1=yes 0=no],Hour[],StartMinute[],EndMinute[],DayType
3,5,Cumulative Day of Simulation[],Month[],Day of Month[],DST Indicator[1=yes 0=no],DayType  ! When Daily Meters Requested
4,2,Cumulative Days of Simulation[],Month[]  ! When Monthly Meters Requested
5,1,Cumulative Days of Simulation[] ! When Run Period Meters Requested
6,1,Calendar Year of Simulation[] ! When Annual Meters Requested
13,9,Electricity:Facility [J] !Monthly [Value,Min,Day,Hour,Minute,Max,Day,Hour,Minute]
25,9,Electricity:Building [J] !Monthly [Value,Min,Day,Hour,Minute,Max,Day,Hour,Minute]
49,9,InteriorLights:Electricity [J] !Monthly [Value,Min,Day,Hour,Minute,Max,Day,Hour,Minute]
840,9,Electricity:HVAC [J] !Monthly [Value,Min,Day,Hour,Minute,Max,Day,Hour,Minute]
1013,9,Electricity:Plant [J] !Monthly [Value,Min,Day,Hour,Minute,Max,Day,Hour,Minute]
976,9,Gas:Plant [J] !Monthly [Value,Min,Day,Hour,Minute,Max,Day,Hour,Minute]
964,9,Gas:Facility [J] !Monthly [Value,Min,Day,Hour,Minute,Max,Day,Hour,Minute]
15,11,Electricity:Facility [J] !RunPeriod [Value,Min,Month,Day,Hour,Minute,Max,Month,Day,Hour,Minute]
27,11,Electricity:Building [J] !RunPeriod [Value,Min,Month,Day,Hour,Minute,Max,Month,Day,Hour,Minute]
51,11,InteriorLights:Electricity [J] !RunPeriod [Value,Min,Month,Day,Hour,Minute,Max,Month,Day,Hour,Minute]
842,11,Electricity:HVAC [J] !RunPeriod [Value,Min,Month,Day,Hour,Minute,Max,Month,Day,Hour,Minute]
1015,11,Electricity:Plant [J] !RunPeriod [Value,Min,Month,Day,Hour,Minute,Max,Month,Day,Hour,Minute]
978,11,Gas:Plant [J] !RunPeriod [Value,Min,Month,Day,Hour,Minute,Max,Month,Day,Hour,Minute]
966,11,Gas:Facility [J] !RunPeriod [Value,Min,Month,Day,Hour,Minute,Max,Month,Day,Hour,Minute]
End of Data Dictionary
1,RUNPERIOD 1,  41.98, -87.92,  -6.00, 201.00
4,31, 1
13,12938167171.09018,427500.0, 1, 1,15,15751986.344427925,17,11,15
25,10966050000.0,427500.0, 1, 1,15,10800000.0, 1,11,15
49,7369650000.0,337500.0, 1, 1,15,6750000.0, 1,11,15
840,836576325.9193403,0.0, 1, 1,15,708772.8082225706, 7, 8,30
964,7588914587.923074,0.0, 1, 1,15,33145369.321609528, 7, 8,15
976,7588914587.923074,0.0, 1, 1,15,33145369.321609528, 7, 8,15
1013,1135540845.1708122,0.0, 1, 1,15,4314102.794666031,17,13,60
4,59, 2
13,11555094656.895482,427500.0, 1, 1,15,15751067.129700404,11,11,45
25,9578520000.0,427500.0, 1, 1,15,10800000.0, 1,11,15
49,6442200000.0,337500.0, 1, 1,15,6750000.0, 1,11,15
840,726702227.5535245,0.0, 1, 1,15,708772.8082225705, 6, 8,30
964,6277888515.082782,0.0, 1, 1,15,31820161.973766734, 6, 8,15
976,6277888515.082782,0.0, 1, 1,15,31820161.973766734, 6, 8,15
1013,1249872429.3419662,0.0, 1, 1,15,4312253.544583466,11,13,60
4,90, 3
13,12756032526.931202,427500.0, 1, 1,15,15754825.334405698,15,11,15
25,10123110000.0,427500.0, 1, 1,15,10800000.0, 1,11,15
49,6816150000.0,337500.0, 1, 1,15,6750000.0, 1,11,15
840,760001818.7796205,0.0, 1, 1,15,702189.6054682366, 1, 8,15
964,3932119916.720944,0.0, 1, 1,15,24581300.992718489,18, 8,15
976,3932119916.720944,0.0, 1, 1,15,24581300.992718489,18, 8,15
1013,1872920708.151579,0.0, 1, 1,15,4319604.330563073,26,19,45
4,120, 4
13,14649588546.494736,427500.0, 1, 1,15,18181210.660351255,18,11,60
25,10503540000.0,427500.0, 1, 1,15,10800000.0, 1,11,15
49,7060500000.0,337500.0, 1, 1,15,6750000.0, 1,11,15
840,797647733.981691,0.0, 1, 1,15,700971.0671437077, 2, 8,15
964,2678663684.201079,0.0, 1, 1,15,19817393.349912529, 3, 8,15
976,2678663684.201079,0.0, 1, 1,15,19817393.349912529, 3, 8,15
1013,3348400812.5130279,0.0, 1, 1,15,6764802.797052026,18,15,45
4,151, 5
13,16948506543.73647,427500.0, 1, 1,15,18335606.5164842,30,11,15
25,10966050000.0,427500.0, 1, 1,15,10800000.0, 1,11,15
49,7369650000.0,337500.0, 1, 1,15,6750000.0, 1,11,15
840,839329192.0693519,0.0, 1, 1,15,690813.808555244, 2, 8,15
964,1250415122.2930339,0.0, 1, 1,15,14521846.137324529, 2, 8,15
976,1250415122.2930339,0.0, 1, 1,15,14521846.137324529, 2, 8,15
1013,5143127351.667129,0.0, 1, 1,15,7092144.848416235,30,10,60
4,181, 6
13,16424576005.199988,427500.0, 1, 1,15,19307525.273464607,20,11,60
25,9660600000.0,427500.0, 1, 1,15,10800000.0, 3,11,15
49,6507000000.0,337500.0, 1, 1,15,6750000.0, 3,11,15
840,736735581.1258952,0.0, 1, 1,15,681733.8194441001, 6,16,60
964,415443037.08187058,0.0, 1, 1,15,5611073.320139031, 7, 8,30
976,415443037.08187058,0.0, 1, 1,15,5611073.320139031, 7, 8,30
1013,6027240424.074097,0.0, 1, 1,15,8223956.243492587,20,15,60
4,212, 7
13,20173573618.86977,427500.0, 1, 1,15,20035129.12032765,19,11,60
25,10966050000.0,427500.0, 1, 1,15,10800000.0, 1,11,15
49,7369650000.0,337500.0, 1, 1,15,6750000.0, 1,11,15
840,848269727.7617624,0.0, 1, 1,15,687325.3702019455,17,16,45
964,463637995.34687796,0.0, 1, 1,15,5719473.917103121,10, 8,15
976,463637995.34687796,0.0, 1, 1,15,5719473.917103121,10, 8,15
1013,8359253891.108007,0.0, 1, 1,15,8796336.446686706,19,16,60
4,243, 8
13,18490730849.657659,427500.0, 1, 1,15,19768947.21258257,22,11,60
25,10544580000.0,427500.0, 1, 1,15,10800000.0, 1,11,15
49,7092900000.0,337500.0, 1, 1,15,6750000.0, 1,11,15
840,807608231.3094956,0.0, 1, 1,15,686555.5882500606,12,15,60
964,488198273.5482633,0.0, 1, 1,15,5960517.45666174,22, 8,30
976,488198273.5482633,0.0, 1, 1,15,5960517.45666174,22, 8,30
1013,7138542618.348158,0.0, 1, 1,15,8301870.833676998,22,11,60
4,273, 9
13,16323397175.115103,427500.0, 1, 1,15,18742454.76428915, 6,11,60
25,10082070000.0,427500.0, 1, 1,15,10800000.0, 2,11,15
49,6783750000.0,337500.0, 1, 1,15,6750000.0, 2,11,15
840,770434961.5628328,0.0, 1, 1,15,682665.1435996813, 9,15,60
964,659932748.1578642,0.0, 1, 1,15,11869622.413595086,25, 8,15
976,659932748.1578642,0.0, 1, 1,15,11869622.413595086,25, 8,15
1013,5470892213.552286,0.0, 1, 1,15,7271197.409744785, 6,11,60
4,304,10
13,15429642959.857844,427500.0, 1, 1,15,16585982.014984318,21,15,30
25,10966050000.0,427500.0, 1, 1,15,10800000.0, 1,11,15
49,7369650000.0,337500.0, 1, 1,15,6750000.0, 1,11,15
840,834767098.1519522,0.0, 1, 1,15,699454.3910771802,15, 8,15
964,2341894096.956816,0.0, 1, 1,15,19064918.030298644,28, 8,15
976,2341894096.956816,0.0, 1, 1,15,19064918.030298644,28, 8,15
1013,3628825861.7058556,0.0, 1, 1,15,5579275.470349672,21,15,30
4,334,11
13,12807201962.067187,427500.0, 1, 1,15,15750799.272836145,14,11,15
25,10082070000.0,427500.0, 1, 1,15,10800000.0, 1,11,15
49,6783750000.0,337500.0, 1, 1,15,6750000.0, 1,11,15
840,760300166.4672018,0.0, 1, 1,15,705937.8010735827,26, 8,15
964,4464255901.38647,0.0, 1, 1,15,27255993.005592508,26, 8,15
976,4464255901.38647,0.0, 1, 1,15,27255993.005592508,26, 8,15
1013,1964831795.5999113,0.0, 1, 1,15,4341606.383879755, 8,19,60
4,365,12
13,12501699725.617062,427500.0, 1, 1,15,15746362.19738363, 5,11,15
25,10544580000.0,427500.0, 1, 1,15,10800000.0, 2,11,15
49,7092900000.0,337500.0, 1, 1,15,6750000.0, 2,11,15
840,800466452.9798616,0.0, 1, 1,15,708660.0080097042,20, 8,30
964,7281352718.817788,0.0, 1, 1,15,29374234.57764344,20, 8,15
976,7281352718.817788,0.0, 1, 1,15,29374234.57764344,20, 8,15
1013,1156653272.6371709,0.0, 1, 1,15,4305831.254284985, 6,11,60
5,365
15,180998211741.5323,427500.0, 1, 1, 1,15,20035129.12032765, 7,19,11,60
27,124983270000.0,427500.0, 1, 1, 1,15,10800000.0, 1, 1,11,15
51,84057750000.0,337500.0, 1, 1, 1,15,6750000.0, 1, 1,11,15
842,9518839517.662657,0.0, 1, 1, 1,15,708772.8082225706, 1, 7, 8,30
966,37842716597.517,0.0, 1, 1, 1,15,33145369.321609528, 1, 7, 8,15
978,37842716597.517,0.0, 1, 1, 1,15,33145369.321609528, 1, 7, 8,15
1015,46496102223.87517,0.0, 1, 1, 1,15,8796336.446686706, 7,19,16,60
End of Data
 Number of Records Written=          91
